# vtk DataFile Version 2.0
test example
ASCII

DATASET STRUCTURED_POINTS
DIMENSIONS 50 50 1
ASPECT_RATIO 1 1 1
ORIGIN 0 0 0
POINT_DATA 2500
SCALARS numeric_vals double
LOOKUP_TABLE default
-1.307632e-07
-6.325671e-05
-1.241579e-04
-1.808957e-04
-2.287394e-04
-2.654521e-04
-2.864349e-04
-2.904627e-04
-2.748327e-04
-2.398132e-04
-1.867324e-04
-1.184687e-04
-4.116797e-05
4.072464e-05
1.181463e-04
1.861195e-04
2.398846e-04
2.743415e-04
2.904740e-04
2.863282e-04
2.651043e-04
2.286982e-04
1.809799e-04
1.242719e-04
6.412335e-05
2.615268e-07
-6.318568e-05
-1.237958e-04
-1.795701e-04
-2.279929e-04
-2.636881e-04
-2.860578e-04
-2.891388e-04
-2.742238e-04
-2.389229e-04
-1.867306e-04
-1.177592e-04
-4.109723e-05
4.124246e-05
1.179974e-04
1.862738e-04
2.395466e-04
2.742722e-04
2.896425e-04
2.855615e-04
2.638114e-04
2.278137e-04
1.796672e-04
1.245222e-04
6.298946e-05
-4.150939e-03
-4.181858e-03
-4.145209e-03
-4.040731e-03
-3.865948e-03
-3.622607e-03
-3.311743e-03
-2.935221e-03
-2.498036e-03
-2.006067e-03
-1.468465e-03
-8.956245e-04
-3.013909e-04
3.011804e-04
8.951344e-04
1.467717e-03
2.006023e-03
2.498096e-03
2.935375e-03
3.311734e-03
3.622749e-03
3.865870e-03
4.040215e-03
4.145452e-03
4.182424e-03
4.151716e-03
4.055490e-03
3.896391e-03
3.679189e-03
3.408493e-03
3.092949e-03
2.738146e-03
2.355048e-03
1.948268e-03
1.526972e-03
1.095178e-03
6.588203e-04
2.192039e-04
-2.194982e-04
-6.585751e-04
-1.095444e-03
-1.526876e-03
-1.948904e-03
-2.354934e-03
-2.739044e-03
-3.093157e-03
-3.408644e-03
-3.678845e-03
-3.895852e-03
-4.055030e-03
-8.236925e-03
-8.235603e-03
-8.103430e-03
-7.839290e-03
-7.446361e-03
-6.927515e-03
-6.289593e-03
-5.538761e-03
-4.686494e-03
-3.745515e-03
-2.730700e-03
-1.660784e-03
-5.583245e-04
5.569779e-04
1.659863e-03
2.730082e-03
3.745905e-03
4.687087e-03
5.538918e-03
6.289951e-03
6.927761e-03
7.445946e-03
7.839123e-03
8.102851e-03
8.236535e-03
8.237673e-03
8.109096e-03
7.853468e-03
7.476393e-03
6.988129e-03
6.396274e-03
5.714908e-03
4.956821e-03
4.135067e-03
3.264152e-03
2.355975e-03
1.423669e-03
4.753874e-04
-4.763575e-04
-1.423635e-03
-2.357085e-03
-3.264561e-03
-4.136197e-03
-4.957103e-03
-5.715685e-03
-6.396191e-03
-6.987868e-03
-7.476794e-03
-7.852139e-03
-8.107890e-03
-1.219292e-02
-1.216052e-02
-1.193541e-02
-1.151778e-02
-1.091342e-02
-1.012789e-02
-9.173064e-03
-8.059971e-03
-6.806097e-03
-5.429262e-03
-3.952903e-03
-2.401979e-03
-8.060436e-04
8.053352e-04
2.401000e-03
3.952658e-03
5.429603e-03
6.806510e-03
8.060558e-03
9.173156e-03
1.012829e-02
1.091330e-02
1.151764e-02
1.193521e-02
1.216123e-02
1.219349e-02
1.203282e-02
1.168400e-02
1.115365e-02
1.045258e-02
9.594443e-03
8.595989e-03
7.475609e-03
6.252412e-03
4.946646e-03
3.576844e-03
2.164084e-03
7.236474e-04
-7.244193e-04
-2.164049e-03
-3.577725e-03
-4.946693e-03
-6.253119e-03
-7.475725e-03
-8.597158e-03
-9.594296e-03
-1.045234e-02
-1.115306e-02
-1.168357e-02
-1.203194e-02
-1.595616e-02
-1.589511e-02
-1.558159e-02
-1.501830e-02
-1.421210e-02
-1.317363e-02
-1.191706e-02
-1.045918e-02
-8.822992e-03
-7.032074e-03
-5.115688e-03
-3.107279e-03
-1.042586e-03
1.041773e-03
3.106673e-03
5.115622e-03
7.032164e-03
8.823507e-03
1.045985e-02
1.191640e-02
1.317365e-02
1.421156e-02
1.501806e-02
1.558161e-02
1.589606e-02
1.595716e-02
1.576603e-02
1.532786e-02
1.465133e-02
1.374851e-02
1.263677e-02
1.133737e-02
9.871968e-03
8.266749e-03
6.547255e-03
4.738142e-03
2.868187e-03
9.596396e-04
-9.603189e-04
-2.868763e-03
-4.739822e-03
-6.547349e-03
-8.267285e-03
-9.872464e-03
-1.133779e-02
-1.263626e-02
-1.374835e-02
-1.465055e-02
-1.532773e-02
-1.576555e-02
-1.946814e-02
-1.937957e-02
-1.898351e-02
-1.828413e-02
-1.729051e-02
-1.601551e-02
-1.447769e-02
-1.269880e-02
-1.070577e-02
-8.527793e-03
-6.201198e-03
-3.764985e-03
-1.262463e-03
1.262157e-03
3.764896e-03
6.200954e-03
8.527556e-03
1.070586e-02
1.269930e-02
1.447783e-02
1.601556e-02
1.729016e-02
1.828394e-02
1.898358e-02
1.938062e-02
1.946857e-02
1.924970e-02
1.872805e-02
1.791437e-02
1.682347e-02
1.547504e-02
1.389366e-02
1.210740e-02
1.014574e-02
8.040248e-03
5.822372e-03
3.525305e-03
1.179765e-03
-1.180252e-03
-3.525690e-03
-5.823073e-03
-8.040150e-03
-1.014606e-02
-1.210803e-02
-1.389451e-02
-1.547537e-02
-1.682335e-02
-1.791435e-02
-1.872799e-02
-1.924893e-02
-2.267256e-02
-2.255924e-02
-2.208822e-02
-2.126481e-02
-2.010034e-02
-1.860966e-02
-1.681545e-02
-1.474294e-02
-1.242300e-02
-9.892553e-03
-7.192042e-03
-4.365691e-03
-1.463825e-03
1.463635e-03
4.365717e-03
7.191575e-03
9.892412e-03
1.242336e-02
1.474283e-02
1.681449e-02
1.860921e-02
2.009959e-02
2.126462e-02
2.208853e-02
2.255988e-02
2.267332e-02
2.242817e-02
2.183077e-02
2.089251e-02
1.962942e-02
1.806527e-02
1.622711e-02
1.414766e-02
1.186016e-02
9.402403e-03
6.811009e-03
4.124596e-03
1.380281e-03
-1.381615e-03
-4.125107e-03
-6.811552e-03
-9.402675e-03
-1.186106e-02
-1.414804e-02
-1.622764e-02
-1.806520e-02
-1.962930e-02
-2.089169e-02
-2.183027e-02
-2.242758e-02
-2.551953e-02
-2.538407e-02
-2.484637e-02
-2.391251e-02
-2.259582e-02
-2.091403e-02
-1.889162e-02
-1.655839e-02
-1.394942e-02
-1.110578e-02
-8.071780e-03
-4.899437e-03
-1.642381e-03
1.643040e-03
4.899606e-03
8.071944e-03
1.110554e-02
1.394942e-02
1.655800e-02
1.889112e-02
2.091315e-02
2.259495e-02
2.391186e-02
2.484625e-02
2.538425e-02
2.551929e-02
2.525152e-02
2.458663e-02
2.353707e-02
2.212197e-02
2.036568e-02
1.829977e-02
1.595965e-02
1.338304e-02
1.061220e-02
7.689098e-03
4.656715e-03
1.559051e-03
-1.559644e-03
-4.657056e-03
-7.689535e-03
-1.061280e-02
-1.338358e-02
-1.596044e-02
-1.830083e-02
-2.036632e-02
-2.212178e-02
-2.353628e-02
-2.458611e-02
-2.525087e-02
-2.796319e-02
-2.780902e-02
-2.721433e-02
-2.618549e-02
-2.473830e-02
-2.289197e-02
-2.067392e-02
-1.811685e-02
-1.525946e-02
-1.214661e-02
-8.827528e-03
-5.357840e-03
-1.796374e-03
1.796367e-03
5.358243e-03
8.827767e-03
1.214690e-02
1.525978e-02
1.811695e-02
2.067361e-02
2.289137e-02
2.473717e-02
2.618466e-02
2.721351e-02
2.780881e-02
2.796236e-02
2.767541e-02
2.695230e-02
2.580810e-02
2.426194e-02
2.234095e-02
2.007994e-02
1.751587e-02
1.469138e-02
1.165113e-02
8.442947e-03
5.113745e-03
1.711796e-03
-1.713221e-03
-5.114202e-03
-8.443840e-03
-1.165182e-02
-1.469181e-02
-1.751636e-02
-2.008049e-02
-2.234153e-02
-2.426136e-02
-2.580690e-02
-2.695226e-02
-2.767500e-02
-2.996522e-02
-2.979565e-02
-2.915449e-02
-2.804803e-02
-2.649337e-02
-2.451278e-02
-2.213472e-02
-1.939444e-02
-1.633361e-02
-1.299975e-02
-9.447023e-03
-5.733605e-03
-1.921594e-03
1.922710e-03
5.734054e-03
9.447303e-03
1.300062e-02
1.633380e-02
1.939488e-02
2.213442e-02
2.451264e-02
2.649288e-02
2.804689e-02
2.915319e-02
2.979468e-02
2.996468e-02
2.966106e-02
2.889109e-02
2.766825e-02
2.601510e-02
2.396006e-02
2.153818e-02
1.879063e-02
1.576320e-02
1.250252e-02
9.060896e-03
5.488358e-03
1.837461e-03
-1.838693e-03
-5.489143e-03
-9.061600e-03
-1.250309e-02
-1.576292e-02
-1.879119e-02
-2.153906e-02
-2.396039e-02
-2.601517e-02
-2.766793e-02
-2.889092e-02
-2.966103e-02
-3.149434e-02
-3.131345e-02
-3.063598e-02
-2.947048e-02
-2.783404e-02
-2.575028e-02
-2.325041e-02
-2.037037e-02
-1.715451e-02
-1.365207e-02
-9.920217e-03
-6.020017e-03
-2.017963e-03
2.018735e-03
6.021253e-03
9.920868e-03
1.365238e-02
1.715412e-02
2.037055e-02
2.325090e-02
2.575092e-02
2.783362e-02
2.946975e-02
3.063497e-02
3.131231e-02
3.149396e-02
3.117813e-02
3.037145e-02
2.908965e-02
2.735464e-02
2.519632e-02
2.265209e-02
1.976527e-02
1.658216e-02
1.315341e-02
9.532494e-03
5.774601e-03
1.933706e-03
-1.935151e-03
-5.775892e-03
-9.534143e-03
-1.315384e-02
-1.658184e-02
-1.976564e-02
-2.265291e-02
-2.519696e-02
-2.735426e-02
-2.908897e-02
-3.037176e-02
-3.117871e-02
-3.252728e-02
-3.233805e-02
-3.163607e-02
-3.043115e-02
-2.873979e-02
-2.658718e-02
-2.400394e-02
-2.102955e-02
-1.770860e-02
-1.409221e-02
-1.023951e-02
-6.213582e-03
-2.082735e-03
2.083959e-03
6.214941e-03
1.024048e-02
1.409243e-02
1.770777e-02
2.102927e-02
2.400407e-02
2.658708e-02
2.873924e-02
3.043053e-02
3.163552e-02
3.233697e-02
3.252630e-02
3.220294e-02
3.137238e-02
3.004956e-02
2.825899e-02
2.603156e-02
2.340483e-02
2.042320e-02
1.713497e-02
1.359317e-02
9.851693e-03
5.968008e-03
1.999139e-03
-1.999809e-03
-5.969441e-03
-9.853019e-03
-1.359372e-02
-1.713522e-02
-2.042380e-02
-2.340549e-02
-2.603154e-02
-2.825914e-02
-3.004935e-02
-3.137198e-02
-3.220298e-02
-3.304719e-02
-3.285420e-02
-3.214032e-02
-3.091497e-02
-2.919596e-02
-2.700851e-02
-2.438345e-02
-2.136104e-02
-1.798694e-02
-1.431375e-02
-1.040035e-02
-6.311174e-03
-2.115693e-03
2.116376e-03
6.312328e-03
1.040101e-02
1.431407e-02
1.798733e-02
2.136146e-02
2.438364e-02
2.700790e-02
2.919547e-02
3.091464e-02
3.213955e-02
3.285298e-02
3.304674e-02
3.271824e-02
3.187545e-02
3.053311e-02
2.871509e-02
2.645234e-02
2.378399e-02
2.075467e-02
1.741350e-02
1.381502e-02
1.001266e-02
6.065367e-03
2.031411e-03
-2.033118e-03
-6.066957e-03
-1.001412e-02
-1.381525e-02
-1.741446e-02
-2.075533e-02
-2.378447e-02
-2.645269e-02
-2.871487e-02
-3.053298e-02
-3.187563e-02
-3.271900e-02
-3.304720e-02
-3.285385e-02
-3.214027e-02
-3.091526e-02
-2.919597e-02
-2.700832e-02
-2.438377e-02
-2.136121e-02
-1.798740e-02
-1.431343e-02
-1.039980e-02
-6.311136e-03
-2.115824e-03
2.116389e-03
6.312340e-03
1.040067e-02
1.431366e-02
1.798725e-02
2.136131e-02
2.438410e-02
2.700843e-02
2.919578e-02
3.091466e-02
3.213967e-02
3.285308e-02
3.304654e-02
3.271839e-02
3.187503e-02
3.053294e-02
2.871496e-02
2.645205e-02
2.378439e-02
2.075499e-02
1.741397e-02
1.381506e-02
1.001288e-02
6.066248e-03
2.031729e-03
-2.032770e-03
-6.067066e-03
-1.001438e-02
-1.381574e-02
-1.741375e-02
-2.075559e-02
-2.378494e-02
-2.645282e-02
-2.871503e-02
-3.053282e-02
-3.187544e-02
-3.271909e-02
-3.252733e-02
-3.233766e-02
-3.163599e-02
-3.043131e-02
-2.874020e-02
-2.658721e-02
-2.400395e-02
-2.102911e-02
-1.770785e-02
-1.409170e-02
-1.023916e-02
-6.213515e-03
-2.082904e-03
2.083448e-03
6.214826e-03
1.024015e-02
1.409186e-02
1.770768e-02
2.102930e-02
2.400481e-02
2.658748e-02
2.874000e-02
3.043080e-02
3.163543e-02
3.233660e-02
3.252625e-02
3.220236e-02
3.137136e-02
3.004932e-02
2.825867e-02
2.603134e-02
2.340524e-02
2.042314e-02
1.713533e-02
1.359370e-02
9.852583e-03
5.968855e-03
1.998820e-03
-1.999656e-03
-5.969658e-03
-9.853401e-03
-1.359395e-02
-1.713539e-02
-2.042413e-02
-2.340568e-02
-2.603207e-02
-2.825925e-02
-3.004966e-02
-3.137193e-02
-3.220328e-02
-3.149445e-02
-3.131283e-02
-3.063462e-02
-2.947004e-02
-2.783423e-02
-2.575177e-02
-2.325098e-02
-2.037063e-02
-1.715414e-02
-1.365184e-02
-9.920550e-03
-6.020485e-03
-2.018630e-03
2.018501e-03
6.020952e-03
9.920172e-03
1.365173e-02
1.715383e-02
2.037088e-02
2.325104e-02
2.575167e-02
2.783454e-02
2.947025e-02
3.063421e-02
3.131264e-02
3.149350e-02
3.117817e-02
3.037187e-02
2.908958e-02
2.735411e-02
2.519634e-02
2.265259e-02
1.976520e-02
1.658179e-02
1.315430e-02
9.533850e-03
5.775582e-03
1.934458e-03
-1.934837e-03
-5.776311e-03
-9.534406e-03
-1.315447e-02
-1.658236e-02
-1.976585e-02
-2.265322e-02
-2.519718e-02
-2.735461e-02
-2.908961e-02
-3.037159e-02
-3.117829e-02
-2.996476e-02
-2.979516e-02
-2.915305e-02
-2.804752e-02
-2.649332e-02
-2.451289e-02
-2.213464e-02
-1.939500e-02
-1.633401e-02
-1.299988e-02
-9.446573e-03
-5.733501e-03
-1.921629e-03
1.922249e-03
5.733812e-03
9.446867e-03
1.299974e-02
1.633369e-02
1.939501e-02
2.213470e-02
2.451316e-02
2.649317e-02
2.804677e-02
2.915249e-02
2.979457e-02
2.996418e-02
2.966063e-02
2.889044e-02
2.766800e-02
2.601440e-02
2.395954e-02
2.153822e-02
1.879131e-02
1.576290e-02
1.250312e-02
9.060675e-03
5.488832e-03
1.838043e-03
-1.838746e-03
-5.489638e-03
-9.061974e-03
-1.250400e-02
-1.576350e-02
-1.879137e-02
-2.153909e-02
-2.396095e-02
-2.601544e-02
-2.766828e-02
-2.889059e-02
-2.966157e-02
-2.796173e-02
-2.780775e-02
-2.721269e-02
-2.618497e-02
-2.473770e-02
-2.289211e-02
-2.067412e-02
-1.811772e-02
-1.526024e-02
-1.214699e-02
-8.827653e-03
-5.358303e-03
-1.796214e-03
1.796288e-03
5.358497e-03
8.827519e-03
1.214594e-02
1.525954e-02
1.811779e-02
2.067428e-02
2.289172e-02
2.473708e-02
2.618457e-02
2.721257e-02
2.780782e-02
2.796166e-02
2.767436e-02
2.695156e-02
2.580702e-02
2.426055e-02
2.234084e-02
2.007976e-02
1.751608e-02
1.469129e-02
1.165119e-02
8.442814e-03
5.114033e-03
1.712261e-03
-1.713159e-03
-5.114895e-03
-8.444040e-03
-1.165250e-02
-1.469203e-02
-1.751706e-02
-2.008097e-02
-2.234188e-02
-2.426179e-02
-2.580765e-02
-2.695226e-02
-2.767495e-02
-2.551851e-02
-2.538300e-02
-2.484521e-02
-2.391161e-02
-2.259477e-02
-2.091368e-02
-1.889122e-02
-1.655827e-02
-1.394928e-02
-1.110551e-02
-8.071718e-03
-4.899481e-03
-1.642202e-03
1.642305e-03
4.899822e-03
8.071001e-03
1.110470e-02
1.394885e-02
1.655863e-02
1.889166e-02
2.091363e-02
2.259501e-02
2.391174e-02
2.484532e-02
2.538311e-02
2.551780e-02
2.524997e-02
2.458532e-02
2.353581e-02
2.212126e-02
2.036569e-02
1.830048e-02
1.595995e-02
1.338330e-02
1.061239e-02
7.688271e-03
4.656813e-03
1.559150e-03
-1.560106e-03
-4.657689e-03
-7.689952e-03
-1.061317e-02
-1.338446e-02
-1.596107e-02
-1.830143e-02
-2.036683e-02
-2.212214e-02
-2.353693e-02
-2.458606e-02
-2.525138e-02
-2.267178e-02
-2.255842e-02
-2.208697e-02
-2.126403e-02
-2.009913e-02
-1.860954e-02
-1.681496e-02
-1.474267e-02
-1.242305e-02
-9.892903e-03
-7.191106e-03
-4.365487e-03
-1.463603e-03
1.463526e-03
4.365637e-03
7.190809e-03
9.892095e-03
1.242278e-02
1.474339e-02
1.681520e-02
1.860958e-02
2.009934e-02
2.126346e-02
2.208754e-02
2.255843e-02
2.267156e-02
2.242613e-02
2.182945e-02
2.089113e-02
1.962842e-02
1.806506e-02
1.622787e-02
1.414785e-02
1.186021e-02
9.402279e-03
6.810175e-03
4.124201e-03
1.380537e-03
-1.381827e-03
-4.125224e-03
-6.811909e-03
-9.403111e-03
-1.186095e-02
-1.414904e-02
-1.622866e-02
-1.806591e-02
-1.962914e-02
-2.089182e-02
-2.183010e-02
-2.242759e-02
-1.946744e-02
-1.937904e-02
-1.898219e-02
-1.828293e-02
-1.728966e-02
-1.601512e-02
-1.447776e-02
-1.269853e-02
-1.070502e-02
-8.527262e-03
-6.200794e-03
-3.765126e-03
-1.262421e-03
1.262489e-03
3.764879e-03
6.200241e-03
8.526808e-03
1.070477e-02
1.269972e-02
1.447825e-02
1.601593e-02
1.728972e-02
1.828340e-02
1.898278e-02
1.937898e-02
1.946747e-02
1.924796e-02
1.872669e-02
1.791286e-02
1.682282e-02
1.547476e-02
1.389416e-02
1.210832e-02
1.014570e-02
8.040015e-03
5.821374e-03
3.524742e-03
1.179699e-03
-1.180439e-03
-3.525505e-03
-5.822978e-03
-8.040573e-03
-1.014660e-02
-1.210925e-02
-1.389560e-02
-1.547602e-02
-1.682316e-02
-1.791377e-02
-1.872674e-02
-1.924884e-02
-1.595584e-02
-1.589499e-02
-1.558039e-02
-1.501705e-02
-1.421134e-02
-1.317300e-02
-1.191684e-02
-1.045922e-02
-8.822420e-03
-7.031595e-03
-5.115395e-03
-3.106629e-03
-1.041620e-03
1.041688e-03
3.106605e-03
5.114494e-03
7.030965e-03
8.822837e-03
1.046018e-02
1.191712e-02
1.317338e-02
1.421109e-02
1.501694e-02
1.558013e-02
1.589385e-02
1.595518e-02
1.576400e-02
1.532690e-02
1.464977e-02
1.374774e-02
1.263630e-02
1.133704e-02
9.872448e-03
8.266195e-03
6.547317e-03
4.738036e-03
2.867925e-03
9.595532e-04
-9.606078e-04
-2.868673e-03
-4.739052e-03
-6.547028e-03
-8.267811e-03
-9.873651e-03
-1.133845e-02
-1.263689e-02
-1.374818e-02
-1.465016e-02
-1.532660e-02
-1.576493e-02
-1.219235e-02
-1.216014e-02
-1.193501e-02
-1.151724e-02
-1.091218e-02
-1.012759e-02
-9.172301e-03
-8.059802e-03
-6.805898e-03
-5.428955e-03
-3.952258e-03
-2.401580e-03
-8.052602e-04
8.053571e-04
2.401169e-03
3.951497e-03
5.428524e-03
6.806115e-03
8.060538e-03
9.173120e-03
1.012768e-02
1.091254e-02
1.151693e-02
1.193409e-02
1.215955e-02
1.219162e-02
1.203104e-02
1.168300e-02
1.115284e-02
1.045163e-02
9.593796e-03
8.596090e-03
7.476206e-03
6.252465e-03
4.946386e-03
3.576951e-03
2.163679e-03
7.234192e-04
-7.240542e-04
-2.164179e-03
-3.577608e-03
-4.946622e-03
-6.253506e-03
-7.477406e-03
-8.597696e-03
-9.595332e-03
-1.045174e-02
-1.115287e-02
-1.168240e-02
-1.203171e-02
-8.236517e-03
-8.235775e-03
-8.102384e-03
-7.838548e-03
-7.445211e-03
-6.926992e-03
-6.288685e-03
-5.538026e-03
-4.685935e-03
-3.744461e-03
-2.729756e-03
-1.661059e-03
-5.573928e-04
5.566013e-04
1.660082e-03
2.729273e-03
3.744122e-03
4.686384e-03
5.538617e-03
6.289186e-03
6.926897e-03
7.445404e-03
7.838688e-03
8.102060e-03
8.234326e-03
8.236063e-03
8.107555e-03
7.852270e-03
7.476393e-03
6.986793e-03
6.395991e-03
5.714837e-03
4.957019e-03
4.135024e-03
3.264423e-03
2.356296e-03
1.423485e-03
4.756258e-04
-4.763477e-04
-1.423915e-03
-2.356839e-03
-3.264581e-03
-4.136177e-03
-4.957982e-03
-5.716016e-03
-6.396958e-03
-6.987270e-03
-7.476009e-03
-7.851734e-03
-8.107636e-03
-4.151369e-03
-4.181956e-03
-4.145101e-03
-4.039124e-03
-3.865005e-03
-3.621643e-03
-3.311089e-03
-2.934385e-03
-2.497163e-03
-2.005524e-03
-1.468098e-03
-8.956167e-04
-3.009539e-04
3.003114e-04
8.953646e-04
1.467626e-03
2.005215e-03
2.497641e-03
2.934676e-03
3.310774e-03
3.621446e-03
3.865434e-03
4.039634e-03
4.144783e-03
4.181101e-03
4.150876e-03
4.054768e-03
3.895632e-03
3.678144e-03
3.408039e-03
3.092482e-03
2.738973e-03
2.354609e-03
1.947549e-03
1.526383e-03
1.095480e-03
6.588561e-04
2.187961e-04
-2.197980e-04
-6.592381e-04
-1.095494e-03
-1.526866e-03
-1.949236e-03
-2.355433e-03
-2.739074e-03
-3.093112e-03
-3.408683e-03
-3.678745e-03
-3.895493e-03
-4.054709e-03
-5.790938e-07
-6.351250e-05
-1.242625e-04
-1.803597e-04
-2.280207e-04
-2.643545e-04
-2.857543e-04
-2.888747e-04
-2.736894e-04
-2.388578e-04
-1.856242e-04
-1.184149e-04
-4.085137e-05
3.970399e-05
1.174481e-04
1.856369e-04
2.390811e-04
2.743098e-04
2.892700e-04
2.859264e-04
2.638771e-04
2.279967e-04
1.800929e-04
1.243615e-04
6.316131e-05
5.043722e-07
-6.410096e-05
-1.246062e-04
-1.808996e-04
-2.286724e-04
-2.646274e-04
-2.859595e-04
-2.902486e-04
-2.751353e-04
-2.396629e-04
-1.863897e-04
-1.183737e-04
-4.115121e-05
4.053839e-05
1.176640e-04
1.856555e-04
2.391258e-04
2.733886e-04
2.894820e-04
2.854725e-04
2.639872e-04
2.278062e-04
1.803543e-04
1.244157e-04
6.357230e-05
4.151169e-03
4.054821e-03
3.895630e-03
3.678425e-03
3.408441e-03
3.092930e-03
2.739204e-03
2.355324e-03
1.949290e-03
1.527689e-03
1.095694e-03
6.585352e-04
2.197628e-04
-2.201631e-04
-6.591220e-04
-1.096084e-03
-1.527520e-03
-1.948548e-03
-2.355091e-03
-2.738718e-03
-3.093325e-03
-3.408530e-03
-3.678549e-03
-3.895589e-03
-4.055071e-03
-4.151175e-03
-4.182005e-03
-4.145214e-03
-4.040509e-03
-3.865928e-03
-3.622406e-03
-3.311305e-03
-2.935505e-03
-2.498029e-03
-2.006213e-03
-1.467880e-03
-8.956578e-04
-3.017839e-04
3.005324e-04
8.954345e-04
1.468328e-03
2.005396e-03
2.497177e-03
2.934248e-03
3.310647e-03
3.621728e-03
3.864941e-03
4.039411e-03
4.145212e-03
4.181177e-03
8.237569e-03
8.107884e-03
7.852529e-03
7.476105e-03
6.987248e-03
6.396601e-03
5.715184e-03
4.957714e-03
4.136409e-03
3.264822e-03
2.356865e-03
1.423288e-03
4.758731e-04
-4.765940e-04
-1.424131e-03
-2.357404e-03
-3.265302e-03
-4.135926e-03
-4.957783e-03
-5.715396e-03
-6.396818e-03
-6.987226e-03
-7.476276e-03
-7.852466e-03
-8.107944e-03
-8.236684e-03
-8.235847e-03
-8.102525e-03
-7.839043e-03
-7.446179e-03
-6.928004e-03
-6.289567e-03
-5.539186e-03
-4.686972e-03
-3.744808e-03
-2.729785e-03
-1.660684e-03
-5.580958e-04
5.574258e-04
1.660479e-03
2.730290e-03
3.744992e-03
4.686086e-03
5.538963e-03
6.289053e-03
6.927805e-03
7.445809e-03
7.838617e-03
8.102965e-03
8.235685e-03
1.219296e-02
1.203208e-02
1.168341e-02
1.115287e-02
1.045180e-02
9.594619e-03
8.596774e-03
7.476575e-03
6.253630e-03
4.947148e-03
3.577266e-03
2.163760e-03
7.237711e-04
-7.244307e-04
-2.164737e-03
-3.577767e-03
-4.947511e-03
-6.253238e-03
-7.476679e-03
-8.597055e-03
-9.594746e-03
-1.045209e-02
-1.115298e-02
-1.168258e-02
-1.203237e-02
-1.219257e-02
-1.216055e-02
-1.193467e-02
-1.151744e-02
-1.091307e-02
-1.012853e-02
-9.173810e-03
-8.061690e-03
-6.806349e-03
-5.429283e-03
-3.952255e-03
-2.401817e-03
-8.060436e-04
8.056280e-04
2.402170e-03
3.952441e-03
5.429487e-03
6.805970e-03
8.060736e-03
9.173369e-03
1.012836e-02
1.091296e-02
1.151751e-02
1.193538e-02
1.216050e-02
1.595632e-02
1.576567e-02
1.532783e-02
1.465014e-02
1.374814e-02
1.263743e-02
1.133725e-02
9.873205e-03
8.267001e-03
6.546792e-03
4.738364e-03
2.867873e-03
9.596325e-04
-9.602736e-04
-2.868478e-03
-4.739380e-03
-6.547918e-03
-8.267140e-03
-9.873110e-03
-1.133768e-02
-1.263737e-02
-1.374817e-02
-1.465077e-02
-1.532692e-02
-1.576553e-02
-1.595621e-02
-1.589486e-02
-1.558050e-02
-1.501773e-02
-1.421152e-02
-1.317489e-02
-1.191823e-02
-1.046101e-02
-8.823120e-03
-7.031753e-03
-5.115051e-03
-3.107191e-03
-1.042078e-03
1.041752e-03
3.107238e-03
5.115787e-03
7.032415e-03
8.823267e-03
1.046051e-02
1.191741e-02
1.317413e-02
1.421169e-02
1.501763e-02
1.558103e-02
1.589495e-02
1.946777e-02
1.924895e-02
1.872797e-02
1.791422e-02
1.682340e-02
1.547605e-02
1.389481e-02
1.210848e-02
1.014618e-02
8.040076e-03
5.821866e-03
3.525123e-03
1.179733e-03
-1.180438e-03
-3.525430e-03
-5.822642e-03
-8.040485e-03
-1.014626e-02
-1.210888e-02
-1.389499e-02
-1.547635e-02
-1.682332e-02
-1.791405e-02
-1.872721e-02
-1.924899e-02
-1.946774e-02
-1.937990e-02
-1.898290e-02
-1.828389e-02
-1.729061e-02
-1.601682e-02
-1.447854e-02
-1.270001e-02
-1.070529e-02
-8.527748e-03
-6.200698e-03
-3.765458e-03
-1.262876e-03
1.262282e-03
3.765215e-03
6.201187e-03
8.528175e-03
1.070531e-02
1.269918e-02
1.447827e-02
1.601585e-02
1.728966e-02
1.828330e-02
1.898280e-02
1.937876e-02
2.267240e-02
2.242753e-02
2.183053e-02
2.089220e-02
1.962921e-02
1.806569e-02
1.622777e-02
1.414840e-02
1.186051e-02
9.401974e-03
6.810636e-03
4.124320e-03
1.381021e-03
-1.381264e-03
-4.125151e-03
-6.811110e-03
-9.403049e-03
-1.186118e-02
-1.414859e-02
-1.622811e-02
-1.806606e-02
-1.962922e-02
-2.089189e-02
-2.182993e-02
-2.242742e-02
-2.267214e-02
-2.255976e-02
-2.208766e-02
-2.126481e-02
-2.010019e-02
-1.861062e-02
-1.681572e-02
-1.474313e-02
-1.242302e-02
-9.892595e-03
-7.191482e-03
-4.366448e-03
-1.463871e-03
1.463697e-03
4.366321e-03
7.191933e-03
9.893145e-03
1.242332e-02
1.474278e-02
1.681490e-02
1.860918e-02
2.009909e-02
2.126407e-02
2.208760e-02
2.255829e-02
2.551857e-02
2.525094e-02
2.458607e-02
2.353671e-02
2.212174e-02
2.036656e-02
1.830064e-02
1.595983e-02
1.338356e-02
1.061238e-02
7.689167e-03
4.656825e-03
1.559350e-03
-1.559998e-03
-4.657337e-03
-7.689079e-03
-1.061258e-02
-1.338360e-02
-1.596069e-02
-1.830142e-02
-2.036692e-02
-2.212170e-02
-2.353668e-02
-2.458594e-02
-2.525120e-02
-2.551921e-02
-2.538414e-02
-2.484553e-02
-2.391253e-02
-2.259567e-02
-2.091436e-02
-1.889189e-02
-1.655848e-02
-1.394898e-02
-1.110523e-02
-8.071431e-03
-4.899530e-03
-1.642963e-03
1.642566e-03
4.900255e-03
8.071994e-03
1.110591e-02
1.394957e-02
1.655845e-02
1.889101e-02
2.091314e-02
2.259501e-02
2.391188e-02
2.484575e-02
2.538313e-02
2.796246e-02
2.767478e-02
2.695180e-02
2.580751e-02
2.426153e-02
2.234132e-02
2.007941e-02
1.751537e-02
1.469111e-02
1.165141e-02
8.442985e-03
5.113941e-03
1.712676e-03
-1.713487e-03
-5.114115e-03
-8.443349e-03
-1.165154e-02
-1.469162e-02
-1.751634e-02
-2.008038e-02
-2.234219e-02
-2.426158e-02
-2.580743e-02
-2.695174e-02
-2.767567e-02
-2.796269e-02
-2.780861e-02
-2.721269e-02
-2.618495e-02
-2.473789e-02
-2.289217e-02
-2.067410e-02
-1.811755e-02
-1.525984e-02
-1.214670e-02
-8.827332e-03
-5.358069e-03
-1.796312e-03
1.796293e-03
5.358296e-03
8.827569e-03
1.214668e-02
1.525968e-02
1.811729e-02
2.067365e-02
2.289142e-02
2.473726e-02
2.618472e-02
2.721321e-02
2.780843e-02
2.996412e-02
2.966112e-02
2.889100e-02
2.766877e-02
2.601490e-02
2.395978e-02
2.153717e-02
1.878987e-02
1.576255e-02
1.250282e-02
9.061403e-03
5.489344e-03
1.838123e-03
-1.839099e-03
-5.489169e-03
-9.060876e-03
-1.250306e-02
-1.576325e-02
-1.879091e-02
-2.153856e-02
-2.396034e-02
-2.601578e-02
-2.766845e-02
-2.889063e-02
-2.966149e-02
-2.996512e-02
-2.979512e-02
-2.915258e-02
-2.804713e-02
-2.649314e-02
-2.451307e-02
-2.213476e-02
-1.939490e-02
-1.633403e-02
-1.300055e-02
-9.446981e-03
-5.733612e-03
-1.922370e-03
1.922353e-03
5.733793e-03
9.447030e-03
1.300045e-02
1.633337e-02
1.939468e-02
2.213470e-02
2.451256e-02
2.649346e-02
2.804725e-02
2.915316e-02
2.979473e-02
3.149370e-02
3.117780e-02
3.037192e-02
2.908990e-02
2.735392e-02
2.519579e-02
2.265103e-02
1.976442e-02
1.658180e-02
1.315442e-02
9.533605e-03
5.775417e-03
1.934287e-03
-1.934967e-03
-5.775647e-03
-9.533591e-03
-1.315370e-02
-1.658175e-02
-1.976495e-02
-2.265260e-02
-2.519669e-02
-2.735471e-02
-2.909004e-02
-3.037182e-02
-3.117858e-02
-3.149476e-02
-3.131276e-02
-3.063437e-02
-2.946894e-02
-2.783378e-02
-2.575075e-02
-2.325032e-02
-2.037093e-02
-1.715418e-02
-1.365254e-02
-9.920238e-03
-6.020369e-03
-2.017712e-03
2.018970e-03
6.021685e-03
9.920731e-03
1.365236e-02
1.715402e-02
2.037029e-02
2.325057e-02
2.575064e-02
2.783385e-02
2.947024e-02
3.063499e-02
3.131212e-02
3.252670e-02
3.220295e-02
3.137220e-02
3.004981e-02
2.825906e-02
2.603075e-02
2.340317e-02
2.042229e-02
1.713505e-02
1.359374e-02
9.852646e-03
5.968615e-03
1.998845e-03
-1.999458e-03
-5.969277e-03
-9.852440e-03
-1.359382e-02
-1.713501e-02
-2.042248e-02
-2.340520e-02
-2.603151e-02
-2.825928e-02
-3.004953e-02
-3.137216e-02
-3.220281e-02
-3.252747e-02
-3.233736e-02
-3.163505e-02
-3.042999e-02
-2.873910e-02
-2.658685e-02
-2.400391e-02
-2.102979e-02
-1.770808e-02
-1.409239e-02
-1.024011e-02
-6.214373e-03
-2.082345e-03
2.084634e-03
6.215746e-03
1.024052e-02
1.409291e-02
1.770865e-02
2.103007e-02
2.400439e-02
2.658702e-02
2.873955e-02
3.043029e-02
3.163512e-02
3.233715e-02
3.304678e-02
3.271900e-02
3.187586e-02
3.053325e-02
2.871476e-02
2.645136e-02
2.378249e-02
2.075376e-02
1.741394e-02
1.381555e-02
1.001356e-02
6.066293e-03
2.031085e-03
-2.032677e-03
-6.067330e-03
-1.001354e-02
-1.381514e-02
-1.741411e-02
-2.075444e-02
-2.378428e-02
-2.645221e-02
-2.871515e-02
-3.053331e-02
-3.187576e-02
-3.271903e-02
-3.304743e-02
-3.285328e-02
-3.213921e-02
-3.091416e-02
-2.919570e-02
-2.700767e-02
-2.438304e-02
-2.136101e-02
-1.798715e-02
-1.431371e-02
-1.040106e-02
-6.311901e-03
-2.114978e-03
2.117590e-03
6.312633e-03
1.040167e-02
1.431494e-02
1.798794e-02
2.136145e-02
2.438363e-02
2.700869e-02
2.919568e-02
3.091457e-02
3.213912e-02
3.285303e-02
3.304662e-02
3.271908e-02
3.187589e-02
3.053353e-02
2.871464e-02
2.645186e-02
2.378312e-02
2.075427e-02
1.741360e-02
1.381506e-02
1.001347e-02
6.066113e-03
2.031265e-03
-2.032524e-03
-6.067159e-03
-1.001355e-02
-1.381509e-02
-1.741442e-02
-2.075484e-02
-2.378367e-02
-2.645199e-02
-2.871463e-02
-3.053300e-02
-3.187585e-02
-3.271903e-02
-3.304723e-02
-3.285370e-02
-3.213926e-02
-3.091398e-02
-2.919529e-02
-2.700812e-02
-2.438300e-02
-2.136075e-02
-1.798699e-02
-1.431390e-02
-1.040100e-02
-6.311849e-03
-2.115154e-03
2.117057e-03
6.312568e-03
1.040151e-02
1.431457e-02
1.798798e-02
2.136190e-02
2.438409e-02
2.700823e-02
2.919612e-02
3.091459e-02
3.213950e-02
3.285357e-02
3.252630e-02
3.220273e-02
3.137216e-02
3.004959e-02
2.825895e-02
2.603112e-02
2.340409e-02
2.042250e-02
1.713514e-02
1.359373e-02
9.852677e-03
5.969033e-03
1.998407e-03
-2.000364e-03
-5.969829e-03
-9.853036e-03
-1.359396e-02
-1.713595e-02
-2.042353e-02
-2.340490e-02
-2.603104e-02
-2.825864e-02
-3.004934e-02
-3.137209e-02
-3.220259e-02
-3.252679e-02
-3.233742e-02
-3.163552e-02
-3.043013e-02
-2.873912e-02
-2.658668e-02
-2.400351e-02
-2.102868e-02
-1.770777e-02
-1.409197e-02
-1.023979e-02
-6.214279e-03
-2.082581e-03
2.084203e-03
6.215008e-03
1.024039e-02
1.409242e-02
1.770898e-02
2.103034e-02
2.400443e-02
2.658698e-02
2.873945e-02
3.043038e-02
3.163576e-02
3.233765e-02
3.149402e-02
3.117810e-02
3.037154e-02
2.908940e-02
2.735423e-02
2.519617e-02
2.265226e-02
1.976395e-02
1.658174e-02
1.315390e-02
9.533905e-03
5.775884e-03
1.934126e-03
-1.935432e-03
-5.776017e-03
-9.533975e-03
-1.315473e-02
-1.658291e-02
-1.976639e-02
-2.265224e-02
-2.519620e-02
-2.735392e-02
-2.908906e-02
-3.037157e-02
-3.117774e-02
-3.149438e-02
-3.131288e-02
-3.063468e-02
-2.946984e-02
-2.783368e-02
-2.575052e-02
-2.325058e-02
-2.037017e-02
-1.715399e-02
-1.365135e-02
-9.920306e-03
-6.020826e-03
-2.018104e-03
2.019059e-03
6.021298e-03
9.920796e-03
1.365235e-02
1.715497e-02
2.037105e-02
2.325078e-02
2.575085e-02
2.783424e-02
2.947016e-02
3.063529e-02
3.131277e-02
2.996395e-02
2.966117e-02
2.889063e-02
2.766785e-02
2.601447e-02
2.395936e-02
2.153820e-02
1.879071e-02
1.576282e-02
1.250324e-02
9.061561e-03
5.489044e-03
1.838177e-03
-1.839792e-03
-5.490138e-03
-9.062388e-03
-1.250399e-02
-1.576370e-02
-1.879189e-02
-2.153831e-02
-2.395985e-02
-2.601449e-02
-2.766816e-02
-2.889057e-02
-2.966060e-02
-2.996449e-02
-2.979517e-02
-2.915296e-02
-2.804680e-02
-2.649266e-02
-2.451278e-02
-2.213397e-02
-1.939434e-02
-1.633301e-02
-1.299946e-02
-9.446518e-03
-5.733450e-03
-1.921786e-03
1.922686e-03
5.733848e-03
9.447285e-03
1.300037e-02
1.633478e-02
1.939524e-02
2.213497e-02
2.451274e-02
2.649338e-02
2.804730e-02
2.915319e-02
2.979503e-02
2.796171e-02
2.767459e-02
2.695201e-02
2.580756e-02
2.426116e-02
2.234086e-02
2.008028e-02
1.751558e-02
1.469093e-02
1.165123e-02
8.442798e-03
5.114314e-03
1.712817e-03
-1.714300e-03
-5.115316e-03
-8.443772e-03
-1.165191e-02
-1.469235e-02
-1.751644e-02
-2.008054e-02
-2.234187e-02
-2.426126e-02
-2.580721e-02
-2.695193e-02
-2.767527e-02
-2.796212e-02
-2.780803e-02
-2.721263e-02
-2.618450e-02
-2.473691e-02
-2.289174e-02
-2.067372e-02
-1.811714e-02
-1.525941e-02
-1.214619e-02
-8.827440e-03
-5.357797e-03
-1.795878e-03
1.796260e-03
5.358618e-03
8.827901e-03
1.214679e-02
1.526003e-02
1.811791e-02
2.067461e-02
2.289238e-02
2.473769e-02
2.618476e-02
2.721280e-02
2.780789e-02
2.551816e-02
2.525076e-02
2.458593e-02
2.353672e-02
2.212152e-02
2.036602e-02
1.830019e-02
1.595985e-02
1.338297e-02
1.061190e-02
7.688196e-03
4.656903e-03
1.559419e-03
-1.560903e-03
-4.658019e-03
-7.689897e-03
-1.061266e-02
-1.338423e-02
-1.596046e-02
-1.830109e-02
-2.036631e-02
-2.212145e-02
-2.353632e-02
-2.458576e-02
-2.525100e-02
-2.551861e-02
-2.538372e-02
-2.484570e-02
-2.391150e-02
-2.259464e-02
-2.091369e-02
-1.889136e-02
-1.655830e-02
-1.394891e-02
-1.110482e-02
-8.071525e-03
-4.899635e-03
-1.642392e-03
1.642788e-03
4.900286e-03
8.072766e-03
1.110588e-02
1.394950e-02
1.655889e-02
1.889177e-02
2.091420e-02
2.259532e-02
2.391177e-02
2.484511e-02
2.538314e-02
2.267187e-02
2.242763e-02
2.183025e-02
2.089202e-02
1.962882e-02
1.806554e-02
1.622748e-02
1.414750e-02