# vtk DataFile Version 2.0
test example
ASCII

DATASET STRUCTURED_POINTS
DIMENSIONS 5 5 1
ASPECT_RATIO 1 1 1
ORIGIN 0 0 0
POINT_DATA 25
SCALARS point_vals double
LOOKUP_TABLE default
1 
2 
3 
48
5
6 
7
8 
9 
100
11 
12 
134
14 
151
167
17 
182
19 
20
21 
221
23 
241 
25



